 CRYSTAL
 PRIMVEC
3.6089871 0.0000000 0.0000000
0.0000000 3.6089871 0.0000000
0.0000000 0.0000000 3.6089871
 PRIMCOORD
           2  1
  26  0.0000000 0.0000000 0.0000000
  26  1.8044936 1.8044936 1.8044936
 
